# vtk DataFile Version 3.0
vtk output
ASCII
DATASET UNSTRUCTURED_GRID
POINTS 6 float
190 95 0 225 140 0 232 170 0
215 115 0 170 145 0 187 160 0 
CELL_TYPES 0

POINT_DATA 6
VECTORS vectors float
-30.0 80.0 0.0 -75.0 30.0 0.0 -80.0 5.0 0.0
-80.0 50.0 0.0 70.0 -70.0 0.0 70.0 -60.0 0.0

