# vtk DataFile Version 3.0
vtk output
ASCII
DATASET UNSTRUCTURED_GRID
POINTS 143 float
0.5 0 0 0.482963 0.12941 0 0.433013 0.25 0 
0.353553 0.353553 0 0.25 0.433013 0 0.12941 0.482963 0 
-2.18557e-08 0.5 0 -0.12941 0.482963 0 -0.25 0.433013 0 
-0.353553 0.353553 0 -0.433013 0.25 0 -0.482963 0.12941 0 
-0.5 -4.37114e-08 0 10.45 0 0 10.0939 2.70466 0 
9.04996 5.225 0 7.38927 7.38927 0 5.225 9.04997 0 
2.70466 10.0939 0 -4.56784e-07 10.45 0 -2.70466 10.0939 0 
-5.225 9.04996 0 -7.38927 7.38927 0 -9.04996 5.225 0 
-10.0939 2.70466 0 -10.45 -9.13568e-07 0 20.4 0 0 
19.7049 5.27991 0 17.6669 10.2 0 14.425 14.425 0 
10.2 17.6669 0 5.27991 19.7049 0 -8.91712e-07 20.4 0 
-5.27991 19.7049 0 -10.2 17.6669 0 -14.425 14.425 0 
-17.6669 10.2 0 -19.7049 5.27991 0 -20.4 -1.78342e-06 0 
30.35 0 0 29.3158 7.85516 0 26.2839 15.175 0 
21.4607 21.4607 0 15.175 26.2839 0 7.85516 29.3158 0 
-1.32664e-06 30.35 0 -7.85516 29.3158 0 -15.175 26.2839 0 
-21.4607 21.4607 0 -26.2839 15.175 0 -29.3158 7.85516 0 
-30.35 -2.65328e-06 0 40.3 0 0 38.9268 10.4304 0 
34.9008 20.15 0 28.4964 28.4964 0 20.15 34.9008 0 
10.4304 38.9268 0 -1.76157e-06 40.3 0 -10.4304 38.9268 0 
-20.15 34.9008 0 -28.4964 28.4964 0 -34.9008 20.15 0 
-38.9268 10.4304 0 -40.3 -3.52314e-06 0 50.25 0 0 
48.5378 13.0057 0 43.5178 25.125 0 35.5321 35.5321 0 
25.125 43.5178 0 13.0057 48.5378 0 -2.1965e-06 50.25 0 
-13.0057 48.5378 0 -25.125 43.5178 0 -35.5321 35.5321 0 
-43.5178 25.125 0 -48.5378 13.0057 0 -50.25 -4.39299e-06 0 
60.2 0 0 58.1487 15.5809 0 52.1347 30.1 0 
42.5678 42.5678 0 30.1 52.1347 0 15.5809 58.1487 0 
-2.63143e-06 60.2 0 -15.5809 58.1487 0 -30.1 52.1347 0 
-42.5678 42.5678 0 -52.1347 30.1 0 -58.1487 15.5809 0 
-60.2 -5.26285e-06 0 70.15 0 0 67.7597 18.1562 0 
60.7517 35.075 0 49.6035 49.6035 0 35.075 60.7517 0 
18.1562 67.7597 0 -3.06635e-06 70.15 0 -18.1562 67.7597 0 
-35.075 60.7517 0 -49.6035 49.6035 0 -60.7517 35.075 0 
-67.7597 18.1562 0 -70.15 -6.13271e-06 0 80.1 0 0 
77.3707 20.7314 0 69.3686 40.05 0 56.6393 56.6393 0 
40.05 69.3686 0 20.7314 77.3707 0 -3.50128e-06 80.1 0 
-20.7314 77.3707 0 -40.05 69.3686 0 -56.6393 56.6393 0 
-69.3686 40.05 0 -77.3707 20.7314 0 -80.1 -7.00256e-06 0 
90.05 0 0 86.9816 23.3067 0 77.9856 45.025 0 
63.675 63.675 0 45.025 77.9856 0 23.3067 86.9816 0 
-3.93621e-06 90.05 0 -23.3067 86.9816 0 -45.025 77.9856 0 
-63.675 63.675 0 -77.9856 45.025 0 -86.9816 23.3067 0 
-90.05 -7.87242e-06 0 100 0 0 96.5926 25.8819 0 
86.6025 50 0 70.7107 70.7107 0 50 86.6025 0 
25.8819 96.5926 0 -4.37114e-06 100 0 -25.8819 96.5926 0 
-50 86.6025 0 -70.7107 70.7107 0 -86.6025 50 0 
-96.5926 25.8819 0 -100 -8.74228e-06 0 
CELL_TYPES 0

POINT_DATA 143
VECTORS vectors float
-0 0.05 0 -0.0226467 0.0845185 0 -0.0625 0.108253 0 
-0.114905 0.114905 0 -0.173205 0.1 0 -0.229407 0.0614695 0 
-0.275 -1.20206e-08 0 -0.301852 -0.080881 0 -0.303109 -0.175 0 
-0.274004 -0.274004 0 -0.2125 -0.368061 0 -0.119704 -0.446741 0 
4.37114e-08 -0.5 0 -0 1.045 0 -0.473315 1.76644 0 
-1.30625 2.26249 0 -2.40151 2.40151 0 -3.61999 2.09 0 
-4.79461 1.28471 0 -5.7475 -2.51231e-07 0 -6.3087 -1.69041 0 
-6.33498 -3.6575 0 -5.72668 -5.72668 0 -4.44125 -7.69247 0 
-2.50181 -9.33688 0 9.13568e-07 -10.45 0 -0 2.04 0 
-0.923984 3.44836 0 -2.55 4.41673 0 -4.68812 4.68812 0 
-7.06677 4.08 0 -9.35982 2.50796 0 -11.22 -4.90442e-07 0 
-12.3156 -3.29994 0 -12.3668 -7.14 0 -11.1794 -11.1794 0 
-8.67 -15.0169 0 -4.88392 -18.227 0 1.78342e-06 -20.4 0 
-0 3.035 0 -1.37465 5.13027 0 -3.79375 6.57097 0 
-6.97472 6.97472 0 -10.5135 6.07 0 -13.925 3.7312 0 
-16.6925 -7.29652e-07 0 -18.3224 -4.90947 0 -18.3987 -10.6225 0 
-16.632 -16.632 0 -12.8988 -22.3413 0 -7.26602 -27.1172 0 
2.65328e-06 -30.35 0 -0 4.03 0 -1.82532 6.81219 0 
-5.0375 8.72521 0 -9.26133 9.26133 0 -13.9603 8.06 0 
-18.4902 4.95444 0 -22.165 -9.68863e-07 0 -24.3293 -6.519 0 
-24.4306 -14.105 0 -22.0847 -22.0847 0 -17.1275 -29.6657 0 
-9.64813 -36.0073 0 3.52314e-06 -40.3 0 -0 5.025 0 
-2.27599 8.49411 0 -6.28125 10.8794 0 -11.5479 11.5479 0 
-17.4071 10.05 0 -23.0554 6.17769 0 -27.6375 -1.20807e-06 0 
-30.3361 -8.12854 0 -30.4624 -17.5875 0 -27.5374 -27.5374 0 
-21.3563 -36.9901 0 -12.0302 -44.8974 0 4.39299e-06 -50.25 0 
-0 6.02 0 -2.72666 10.176 0 -7.525 13.0337 0 
-13.8345 13.8345 0 -20.8539 12.04 0 -27.6206 7.40093 0 
-33.11 -1.44728e-06 0 -36.343 -9.73807 0 -36.4943 -21.07 0 
-32.9901 -32.9901 0 -25.585 -44.3145 0 -14.4123 -53.7876 0 
5.26285e-06 -60.2 0 -0 7.015 0 -3.17733 11.8579 0 
-8.76875 15.1879 0 -16.1212 16.1212 0 -24.3007 14.03 0 
-32.1859 8.62418 0 -38.5825 -1.68649e-06 0 -42.3498 -11.3476 0 
-42.5262 -24.5525 0 -38.4427 -38.4427 0 -29.8138 -51.6389 0 
-16.7945 -62.6777 0 6.13271e-06 -70.15 0 -0 8.01 0 
-3.628 13.5399 0 -10.0125 17.3422 0 -18.4078 18.4078 0 
-27.7475 16.02 0 -36.7511 9.84742 0 -44.055 -1.92571e-06 0 
-48.3567 -12.9571 0 -48.558 -28.035 0 -43.8954 -43.8954 0 
-34.0425 -58.9633 0 -19.1766 -71.5679 0 7.00256e-06 -80.1 0 
-0 9.005 0 -4.07866 15.2218 0 -11.2562 19.4964 0 
-20.6944 20.6944 0 -31.1942 18.01 0 -41.3163 11.0707 0 
-49.5275 -2.16492e-06 0 -54.3635 -14.5667 0 -54.5899 -31.5175 0 
-49.3481 -49.3481 0 -38.2713 -66.2877 0 -21.5587 -80.458 0 
7.87242e-06 -90.05 0 -0 10 0 -4.52933 16.9037 0 
-12.5 21.6506 0 -22.981 22.981 0 -34.641 20 0 
-45.8815 12.2939 0 -55 -2.40413e-06 0 -60.3704 -16.1762 0 
-60.6218 -35 0 -54.8008 -54.8008 0 -42.5 -73.6122 0 
-23.9408 -89.3481 0 8.74228e-06 -100 0 
